ITEM: TIMESTEP
0
ITEM: NUMBER OF ATOMS
198
ITEM: BOX BOUNDS pp pp pp
0 25
0 25
0 25
ITEM: ATOMS id type x y z vx vy vz 
1 1 1.044 12.535 23.026 0 0 0 
2 1 2.027 13.1 22.517 0 0 0 
3 1 9.531 1.593 15.401 0 0 0 
4 1 8.765 1.946 14.422 0 0 0 
5 1 10.318 17.118 14.308 0 0 0 
6 1 11.226 16.62 13.525 0 0 0 
7 1 8 19.058 23.016 0 0 0 
8 1 7.535 17.887 23.244 0 0 0 
9 1 6.217 15.086 14.916 0 0 0 
10 1 5.891 16.039 14.183 0 0 0 
11 1 17.4 13.38 16.236 0 0 0 
12 1 16.634 13.698 17.157 0 0 0 
13 1 23.469 24.684 12.196 0 0 0 
14 1 22.719 0.64 12.521 0 0 0 
15 1 19.64 4.47 10.858 0 0 0 
16 1 18.814 3.966 10.074 0 0 0 
17 1 4.613 20.801 17.674 0 0 0 
18 1 5.52 21.404 18.352 0 0 0 
19 1 11.302 23.363 8.952 0 0 0 
20 1 10.986 22.142 8.852 0 0 0 
21 1 21.788 13.943 20.403 0 0 0 
22 1 21.327 15.074 20.514 0 0 0 
23 1 18.567 19.753 13.806 0 0 0 
24 1 19.417 19.129 14.513 0 0 0 
25 1 13.08 7.463 20.938 0 0 0 
26 1 14.068 7.318 21.697 0 0 0 
27 1 10.731 20.55 2.121 0 0 0 
28 1 10.41 20.137 3.21 0 0 0 
29 1 3.122 11.249 16.576 0 0 0 
30 1 3.558 10.868 15.45 0 0 0 
31 1 14.501 12.571 21.241 0 0 0 
32 1 14.128 11.824 22.153 0 0 0 
33 1 12.759 1.539 4.864 0 0 0 
34 1 13.365 2.609 4.968 0 0 0 
35 1 20.334 7.045 5.39 0 0 0 
36 1 20.695 8.143 4.942 0 0 0 
37 1 18.174 10.613 5.899 0 0 0 
38 1 18.366 11.837 6.299 0 0 0 
39 1 21.721 6.966 14.169 0 0 0 
40 1 22.002 7.306 15.344 0 0 0 
41 1 7.132 14.57 18.431 0 0 0 
42 1 7.614 13.493 17.988 0 0 0 
43 1 14.468 21.201 16.368 0 0 0 
44 1 15.237 21.067 15.388 0 0 0 
45 1 23.719 13.41 1.702 0 0 0 
46 1 24.38 12.513 1.169 0 0 0 
47 1 0.893 1.616 15.881 0 0 0 
48 1 24.788 1.12 15.598 0 0 0 
49 1 15.031 24.538 1 0 0 0 
50 1 13.943 24.014 1.28 0 0 0 
51 1 8.691 4.434 4.279 0 0 0 
52 1 8.699 5.45 3.51 0 0 0 
53 1 16.289 12.437 0.178 0 0 0 
54 1 16.529 13.536 0.703 0 0 0 
55 1 2.61 17.162 13.715 0 0 0 
56 1 1.509 17.734 13.469 0 0 0 
57 1 15.544 6.159 2.03 0 0 0 
58 1 14.799 6.568 2.969 0 0 0 
59 1 8.102 7.755 0.427 0 0 0 
60 1 9.067 8.59 0.537 0 0 0 
61 1 1.738 7.943 23.138 0 0 0 
62 1 2.865 7.819 22.528 0 0 0 
63 1 4.831 16.463 7.487 0 0 0 
64 1 5.796 16.569 6.708 0 0 0 
65 1 24.66 24.052 9.109 0 0 0 
66 1 0.589 24.859 9.374 0 0 0 
67 2 1.157 4.67 3.009 0 0 0 
68 2 0.721 4.757 3.745 0 0 0 
69 2 14.769 7.375 17.189 0 0 0 
70 2 15.014 7.009 16.619 0 0 0 
71 2 22.21 1.198 18.636 0 0 0 
72 2 22.023 0.756 19.164 0 0 0 
73 2 24.987 6.366 9.428 0 0 0 
74 2 24.431 6.191 9.731 0 0 0 
75 2 7.007 11.504 15.747 0 0 0 
76 2 7.061 11.455 15.104 0 0 0 
77 2 11.531 15.69 1.842 0 0 0 
78 2 11.491 14.881 2.192 0 0 0 
79 2 10.452 18.783 17.931 0 0 0 
80 2 10.503 18.221 17.448 0 0 0 
81 2 21.377 3.799 13.412 0 0 0 
82 2 21.503 4.349 13.825 0 0 0 
83 2 5.795 20.655 16.091 0 0 0 
84 2 5.144 20.472 15.664 0 0 0 
85 2 21.833 24.894 7.716 0 0 0 
86 2 21.479 24.796 7.098 0 0 0 
87 2 0.195 24.002 14.808 0 0 0 
88 2 24.509 23.561 14.95 0 0 0 
89 2 19.905 12.486 20.929 0 0 0 
90 2 20.495 12.256 21.503 0 0 0 
91 2 17.293 6.911 24.951 0 0 0 
92 2 17.999 7 24.651 0 0 0 
93 2 12.493 10.325 3.696 0 0 0 
94 2 11.908 10.694 4.058 0 0 0 
95 2 10.585 3.271 7.029 0 0 0 
96 2 10.549 3.117 7.761 0 0 0 
97 2 2.779 3.73 3.586 0 0 0 
98 2 3.26 4.22 3.416 0 0 0 
99 2 22.968 5.288 2.62 0 0 0 
100 2 23.216 5.928 2.527 0 0 0 
101 2 1.563 9.369 17.834 0 0 0 
102 2 1.658 8.656 18.341 0 0 0 
103 2 17.553 8.965 1.24 0 0 0 
104 2 17.99 8.588 1.718 0 0 0 
105 2 9.84 18.126 2.045 0 0 0 
106 2 9.132 18.013 2.425 0 0 0 
107 2 7.438 18.697 3.311 0 0 0 
108 2 7.115 19.209 3.057 0 0 0 
109 2 15.436 9.699 20.947 0 0 0 
110 2 15.062 9.45 21.568 0 0 0 
111 2 4.885 19.909 3.4 0 0 0 
112 2 4.963 19.215 3.738 0 0 0 
113 2 1.846 10.823 24.606 0 0 0 
114 2 1.116 11.019 24.918 0 0 0 
115 2 7.128 5.615 8.883 0 0 0 
116 2 7.254 6.261 8.518 0 0 0 
117 2 18.157 7.808 6.233 0 0 0 
118 2 18.957 8.096 6.343 0 0 0 
119 2 1.393 14.291 19.568 0 0 0 
120 2 1.722 14.879 19.946 0 0 0 
121 2 12.208 17.086 20.307 0 0 0 
122 2 11.911 16.91 19.61 0 0 0 
123 2 11.367 4.288 0.829 0 0 0 
124 2 11.354 4.827 0.127 0 0 0 
125 2 14.873 5.637 19.481 0 0 0 
126 2 15.357 5.475 18.879 0 0 0 
127 2 14.674 1.061 3.874 0 0 0 
128 2 14.104 0.6 3.585 0 0 0 
129 2 18.985 19.674 4.383 0 0 0 
130 2 18.654 19.064 4.577 0 0 0 
131 2 22.527 8.106 23.28 0 0 0 
132 2 21.791 7.929 23.401 0 0 0 
133 2 13.179 20.008 19.459 0 0 0 
134 2 13.293 20.591 19.882 0 0 0 
135 2 5.95 8.677 13.458 0 0 0 
136 2 6.274 8.374 12.952 0 0 0 
137 2 14.308 16.116 3.291 0 0 0 
138 2 14.643 16.628 3.697 0 0 0 
139 2 3.04 1.064 6.864 0 0 0 
140 2 3.354 0.327 6.642 0 0 0 
141 2 0.058 2.63 1.986 0 0 0 
142 2 0.657 2.83 2.207 0 0 0 
143 2 24.615 9.084 13.015 0 0 0 
144 2 24.607 9.641 13.395 0 0 0 
145 2 24.409 15.776 24.261 0 0 0 
146 2 23.871 15.924 23.792 0 0 0 
147 2 18.479 12.217 3.701 0 0 0 
148 2 18.531 11.641 4.289 0 0 0 
149 2 19.542 18.056 12.264 0 0 0 
150 2 19.414 17.569 12.756 0 0 0 
151 2 19.391 15.985 3.684 0 0 0 
152 2 18.89 16.446 3.745 0 0 0 
153 2 1.901 19.781 20.526 0 0 0 
154 2 1.319 20.043 20.755 0 0 0 
155 2 5.943 17.979 21.88 0 0 0 
156 2 5.377 17.673 22.074 0 0 0 
157 2 22.121 12.754 16.707 0 0 0 
158 2 22.807 12.791 16.592 0 0 0 
159 2 4.28 20.607 7.696 0 0 0 
160 2 4.982 20.603 8.061 0 0 0 
161 2 23.978 19.419 19.659 0 0 0 
162 2 23.229 19.436 19.972 0 0 0 
163 2 15.245 0.384 6.378 0 0 0 
164 2 15.656 0.983 6.089 0 0 0 
165 2 3.517 13.275 10.934 0 0 0 
166 2 2.842 13.429 10.881 0 0 0 
167 2 17.248 3.537 3.781 0 0 0 
168 2 17.897 3.939 3.756 0 0 0 
169 2 20.816 9.679 1.476 0 0 0 
170 2 20.164 9.769 1.746 0 0 0 
171 2 17.155 14.383 22.262 0 0 0 
172 2 17.357 13.724 22.428 0 0 0 
173 2 15.935 10.842 14.77 0 0 0 
174 2 15.945 11.47 14.667 0 0 0 
175 2 4.082 4.564 17.804 0 0 0 
176 2 3.485 4.921 17.244 0 0 0 
177 2 13.111 8.966 1.289 0 0 0 
178 2 12.741 9.037 0.73 0 0 0 
179 2 8.23 10.025 10.906 0 0 0 
180 2 7.564 10.021 11.147 0 0 0 
181 2 15.204 16.258 15.409 0 0 0 
182 2 15.837 16.712 15.492 0 0 0 
183 2 2.768 16.29 17.308 0 0 0 
184 2 2.244 16.734 17.604 0 0 0 
185 2 16.765 18.366 17.467 0 0 0 
186 2 17.003 18 18.018 0 0 0 
187 2 12.682 20.367 5.595 0 0 0 
188 2 13.116 20.954 5.92 0 0 0 
189 2 16.451 23.482 2.94 0 0 0 
190 2 16.198 23.933 2.385 0 0 0 
191 2 10.232 0.084 7.23 0 0 0 
192 2 10.705 0.096 7.845 0 0 0 
193 2 14.617 12.248 4.45 0 0 0 
194 2 14.584 12.015 5.26 0 0 0 
195 2 15.207 17.433 19.893 0 0 0 
196 2 14.931 17.768 19.387 0 0 0 
197 2 5.553 0.453 0.93 0 0 0 
198 2 4.873 0.462 0.398 0 0 0 
ITEM: TIMESTEP
1
ITEM: NUMBER OF ATOMS
198
ITEM: BOX BOUNDS pp pp pp
0 25
0 25
0 25
ITEM: ATOMS id type x y z vx vy vz 
1 1 1.044 12.535 23.026 0 0 0 
2 1 2.027 13.1 22.517 0 0 0 
3 1 9.531 1.593 15.401 0 0 0 
4 1 8.765 1.946 14.422 0 0 0 
5 1 10.318 17.118 14.308 0 0 0 
6 1 11.226 16.62 13.525 0 0 0 
7 1 8 19.058 23.016 0 0 0 
8 1 7.535 17.887 23.244 0 0 0 
9 1 6.217 15.086 14.916 0 0 0 
10 1 5.891 16.039 14.183 0 0 0 
11 1 17.4 13.38 16.236 0 0 0 
12 1 16.634 13.698 17.157 0 0 0 
13 1 23.469 24.684 12.196 0 0 0 
14 1 22.719 0.64 12.521 0 0 0 
15 1 19.64 4.47 10.858 0 0 0 
16 1 18.814 3.966 10.074 0 0 0 
17 1 4.613 20.801 17.674 0 0 0 
18 1 5.52 21.404 18.352 0 0 0 
19 1 11.302 23.363 8.952 0 0 0 
20 1 10.986 22.142 8.852 0 0 0 
21 1 21.788 13.943 20.403 0 0 0 
22 1 21.327 15.074 20.514 0 0 0 
23 1 18.567 19.753 13.806 0 0 0 
24 1 19.417 19.129 14.513 0 0 0 
25 1 13.08 7.463 20.938 0 0 0 
26 1 14.068 7.318 21.697 0 0 0 
27 1 10.731 20.55 2.121 0 0 0 
28 1 10.41 20.137 3.21 0 0 0 
29 1 3.122 11.249 16.576 0 0 0 
30 1 3.558 10.868 15.45 0 0 0 
31 1 14.501 12.571 21.241 0 0 0 
32 1 14.128 11.824 22.153 0 0 0 
33 1 12.759 1.539 4.864 0 0 0 
34 1 13.365 2.609 4.968 0 0 0 
35 1 20.334 7.045 5.39 0 0 0 
36 1 20.695 8.143 4.942 0 0 0 
37 1 18.174 10.613 5.899 0 0 0 
38 1 18.366 11.837 6.299 0 0 0 
39 1 21.721 6.966 14.169 0 0 0 
40 1 22.002 7.306 15.344 0 0 0 
41 1 7.132 14.57 18.431 0 0 0 
42 1 7.614 13.493 17.988 0 0 0 
43 1 14.468 21.201 16.368 0 0 0 
44 1 15.237 21.067 15.388 0 0 0 
45 1 23.719 13.41 1.702 0 0 0 
46 1 24.38 12.513 1.169 0 0 0 
47 1 0.893 1.616 15.881 0 0 0 
48 1 24.788 1.12 15.598 0 0 0 
49 1 15.031 24.538 1 0 0 0 
50 1 13.943 24.014 1.28 0 0 0 
51 1 8.691 4.434 4.279 0 0 0 
52 1 8.699 5.45 3.51 0 0 0 
53 1 16.289 12.437 0.178 0 0 0 
54 1 16.529 13.536 0.703 0 0 0 
55 1 2.61 17.162 13.715 0 0 0 
56 1 1.509 17.734 13.469 0 0 0 
57 1 15.544 6.159 2.03 0 0 0 
58 1 14.799 6.568 2.969 0 0 0 
59 1 8.102 7.755 0.427 0 0 0 
60 1 9.067 8.59 0.537 0 0 0 
61 1 1.738 7.943 23.138 0 0 0 
62 1 2.865 7.819 22.528 0 0 0 
63 1 4.831 16.463 7.487 0 0 0 
64 1 5.796 16.569 6.708 0 0 0 
65 1 24.66 24.052 9.109 0 0 0 
66 1 0.589 24.859 9.374 0 0 0 
67 2 1.157 4.67 3.009 0 0 0 
68 2 0.721 4.757 3.745 0 0 0 
69 2 14.769 7.375 17.189 0 0 0 
70 2 15.014 7.009 16.619 0 0 0 
71 2 22.21 1.198 18.636 0 0 0 
72 2 22.023 0.756 19.164 0 0 0 
73 2 24.987 6.366 9.428 0 0 0 
74 2 24.431 6.191 9.731 0 0 0 
75 2 7.007 11.504 15.747 0 0 0 
76 2 7.061 11.455 15.104 0 0 0 
77 2 11.531 15.69 1.842 0 0 0 
78 2 11.491 14.881 2.192 0 0 0 
79 2 10.452 18.783 17.931 0 0 0 
80 2 10.503 18.221 17.448 0 0 0 
81 2 21.377 3.799 13.412 0 0 0 
82 2 21.503 4.349 13.825 0 0 0 
83 2 5.795 20.655 16.091 0 0 0 
84 2 5.144 20.472 15.664 0 0 0 
85 2 21.833 24.894 7.716 0 0 0 
86 2 21.479 24.796 7.098 0 0 0 
87 2 0.195 24.002 14.808 0 0 0 
88 2 24.509 23.561 14.95 0 0 0 
89 2 19.905 12.486 20.929 0 0 0 
90 2 20.495 12.256 21.503 0 0 0 
91 2 17.293 6.911 24.951 0 0 0 
92 2 17.999 7 24.651 0 0 0 
93 2 12.493 10.325 3.696 0 0 0 
94 2 11.908 10.694 4.058 0 0 0 
95 2 10.585 3.271 7.029 0 0 0 
96 2 10.549 3.117 7.761 0 0 0 
97 2 2.779 3.73 3.586 0 0 0 
98 2 3.26 4.22 3.416 0 0 0 
99 2 22.968 5.288 2.62 0 0 0 
100 2 23.216 5.928 2.527 0 0 0 
101 2 1.563 9.369 17.834 0 0 0 
102 2 1.658 8.656 18.341 0 0 0 
103 2 17.553 8.965 1.24 0 0 0 
104 2 17.99 8.588 1.718 0 0 0 
105 2 9.84 18.126 2.045 0 0 0 
106 2 9.132 18.013 2.425 0 0 0 
107 2 7.438 18.697 3.311 0 0 0 
108 2 7.115 19.209 3.057 0 0 0 
109 2 15.436 9.699 20.947 0 0 0 
110 2 15.062 9.45 21.568 0 0 0 
111 2 4.885 19.909 3.4 0 0 0 
112 2 4.963 19.215 3.738 0 0 0 
113 2 1.846 10.823 24.606 0 0 0 
114 2 1.116 11.019 24.918 0 0 0 
115 2 7.128 5.615 8.883 0 0 0 
116 2 7.254 6.261 8.518 0 0 0 
117 2 18.157 7.808 6.233 0 0 0 
118 2 18.957 8.096 6.343 0 0 0 
119 2 1.393 14.291 19.568 0 0 0 
120 2 1.722 14.879 19.946 0 0 0 
121 2 12.208 17.086 20.307 0 0 0 
122 2 11.911 16.91 19.61 0 0 0 
123 2 11.367 4.288 0.829 0 0 0 
124 2 11.354 4.827 0.127 0 0 0 
125 2 14.873 5.637 19.481 0 0 0 
126 2 15.357 5.475 18.879 0 0 0 
127 2 14.674 1.061 3.874 0 0 0 
128 2 14.104 0.6 3.585 0 0 0 
129 2 18.985 19.674 4.383 0 0 0 
130 2 18.654 19.064 4.577 0 0 0 
131 2 22.527 8.106 23.28 0 0 0 
132 2 21.791 7.929 23.401 0 0 0 
133 2 13.179 20.008 19.459 0 0 0 
134 2 13.293 20.591 19.882 0 0 0 
135 2 5.95 8.677 13.458 0 0 0 
136 2 6.274 8.374 12.952 0 0 0 
137 2 14.308 16.116 3.291 0 0 0 
138 2 14.643 16.628 3.697 0 0 0 
139 2 3.04 1.064 6.864 0 0 0 
140 2 3.354 0.327 6.642 0 0 0 
141 2 0.058 2.63 1.986 0 0 0 
142 2 0.657 2.83 2.207 0 0 0 
143 2 24.615 9.084 13.015 0 0 0 
144 2 24.607 9.641 13.395 0 0 0 
145 2 24.409 15.776 24.261 0 0 0 
146 2 23.871 15.924 23.792 0 0 0 
147 2 18.479 12.217 3.701 0 0 0 
148 2 18.531 11.641 4.289 0 0 0 
149 2 19.542 18.056 12.264 0 0 0 
150 2 19.414 17.569 12.756 0 0 0 
151 2 19.391 15.985 3.684 0 0 0 
152 2 18.89 16.446 3.745 0 0 0 
153 2 1.901 19.781 20.526 0 0 0 
154 2 1.319 20.043 20.755 0 0 0 
155 2 5.943 17.979 21.88 0 0 0 
156 2 5.377 17.673 22.074 0 0 0 
157 2 22.121 12.754 16.707 0 0 0 
158 2 22.807 12.791 16.592 0 0 0 
159 2 4.28 20.607 7.696 0 0 0 
160 2 4.982 20.603 8.061 0 0 0 
161 2 23.978 19.419 19.659 0 0 0 
162 2 23.229 19.436 19.972 0 0 0 
163 2 15.245 0.384 6.378 0 0 0 
164 2 15.656 0.983 6.089 0 0 0 
165 2 3.517 13.275 10.934 0 0 0 
166 2 2.842 13.429 10.881 0 0 0 
167 2 17.248 3.537 3.781 0 0 0 
168 2 17.897 3.939 3.756 0 0 0 
169 2 20.816 9.679 1.476 0 0 0 
170 2 20.164 9.769 1.746 0 0 0 
171 2 17.155 14.383 22.262 0 0 0 
172 2 17.357 13.724 22.428 0 0 0 
173 2 15.935 10.842 14.77 0 0 0 
174 2 15.945 11.47 14.667 0 0 0 
175 2 4.082 4.564 17.804 0 0 0 
176 2 3.485 4.921 17.244 0 0 0 
177 2 13.111 8.966 1.289 0 0 0 
178 2 12.741 9.037 0.73 0 0 0 
179 2 8.23 10.025 10.906 0 0 0 
180 2 7.564 10.021 11.147 0 0 0 
181 2 15.204 16.258 15.409 0 0 0 
182 2 15.837 16.712 15.492 0 0 0 
183 2 2.768 16.29 17.308 0 0 0 
184 2 2.244 16.734 17.604 0 0 0 
185 2 16.765 18.366 17.467 0 0 0 
186 2 17.003 18 18.018 0 0 0 
187 2 12.682 20.367 5.595 0 0 0 
188 2 13.116 20.954 5.92 0 0 0 
189 2 16.451 23.482 2.94 0 0 0 
190 2 16.198 23.933 2.385 0 0 0 
191 2 10.232 0.084 7.23 0 0 0 
192 2 10.705 0.096 7.845 0 0 0 
193 2 14.617 12.248 4.45 0 0 0 
194 2 14.584 12.015 5.26 0 0 0 
195 2 15.207 17.433 19.893 0 0 0 
196 2 14.931 17.768 19.387 0 0 0 
197 2 5.553 0.453 0.93 0 0 0 
198 2 4.873 0.462 0.398 0 0 0 
